# vtk DataFile Version 3.0
FEM Solution
ASCII
DATASET UNSTRUCTURED_GRID
POINTS 7 double
0 0 0.0
1 0 0.0
0 1 0.0
1 1 0.0
0.5 0.5 0.0
0 0.5 0.0
0.5 0 0.0

CELLS 4 16
3 0 5 4 
3 5 2 4 
3 4 6 1 
3 6 4 0 

CELL_TYPES 4
5
5
5
5

POINT_DATA 7
SCALARS solution double
LOOKUP_TABLE default
0
0
0
0
19.7392
9.8696
9.8696
